
    -----------------------------------------------------------------------
          Psi4: An Open-Source Ab Initio Electronic Structure Package
                               Psi4 1.6.1 release

                         Git: Rev {HEAD} 5b9f6e3 


    D. G. A. Smith, L. A. Burns, A. C. Simmonett, R. M. Parrish,
    M. C. Schieber, R. Galvelis, P. Kraus, H. Kruse, R. Di Remigio,
    A. Alenaizan, A. M. James, S. Lehtola, J. P. Misiewicz, M. Scheurer,
    R. A. Shaw, J. B. Schriber, Y. Xie, Z. L. Glick, D. A. Sirianni,
    J. S. O'Brien, J. M. Waldrop, A. Kumar, E. G. Hohenstein,
    B. P. Pritchard, B. R. Brooks, H. F. Schaefer III, A. Yu. Sokolov,
    K. Patkowski, A. E. DePrince III, U. Bozkaya, R. A. King,
    F. A. Evangelista, J. M. Turney, T. D. Crawford, C. D. Sherrill,
    J. Chem. Phys. 152(18) 184108 (2020). https://doi.org/10.1063/5.0006002

                            Additional Code Authors
    E. T. Seidl, C. L. Janssen, E. F. Valeev, M. L. Leininger,
    J. F. Gonthier, R. M. Richard, H. R. McAlexander, M. Saitow, X. Wang,
    P. Verma, M. H. Lechner, and A. Jiang

             Previous Authors, Complete List of Code Contributors,
                       and Citations for Specific Modules
    https://github.com/psi4/psi4/blob/master/codemeta.json
    https://github.com/psi4/psi4/graphs/contributors
    http://psicode.org/psi4manual/master/introduction.html#citing-psifour

    -----------------------------------------------------------------------


    Psi4 started on: Monday, 18 July 2022 11:06AM

    Process ID: 48154
    Host:       Bedabratas-MacBook-Air.local
    PSIDATADIR: /opt/miniconda3/share/psi4
    Memory:     500.0 MiB
    Threads:    1
    
  ==> Input File <==

--------------------------------------------------------------------------
set_num_threads(4)

molecule molecule {

0 1

C          0.97544       -1.27024        2.26507
C          2.50561       -1.35276        2.14845
C          3.08174       -0.12361        2.87073
C          2.99337       -1.45543        0.66080
C          2.47419       -2.72060       -0.06456
C          3.15201       -4.01700        0.38405
C          4.68590       -3.96290        0.37197
C          5.25677       -4.21251       -1.03047
C          5.21901       -2.67197        1.01142
C          4.53899       -1.38374        0.52045
N          4.92846       -1.08196       -0.85041
C          6.05513       -0.38630       -1.18489
O          6.76397        0.22809       -0.39964
O          6.24534       -0.48267       -2.55492
C          6.98183        0.55002       -3.15282
C          6.56736        1.86928       -2.99280
C          7.20194        2.86841       -3.71128
C          8.25600        2.54136       -4.57010
C          8.72704        1.21911       -4.71090
C          8.03599        0.21322       -4.00939
C          9.94482        0.93602       -5.51061
C         11.01243        1.85778       -5.51963
C         12.19764        1.61028       -6.21541
C         12.35121        0.42205       -6.91773
C         11.31275       -0.50630       -6.93582
C         10.11972       -0.24925       -6.24499
H          0.67480       -1.22405        3.31887
H          0.47617       -2.14203        1.83701
H          0.58891       -0.37162        1.77183
H          2.82853       -2.24350        2.69981
H          2.89922        0.79172        2.29685
H          4.15773       -0.21947        3.03942
H          2.62505        0.00380        3.85861
H          2.56796       -0.58949        0.13297
H          2.62567       -2.60068       -1.14431
H          1.39123       -2.82557        0.05271
H          2.80258       -4.84183       -0.24996
H          2.81803       -4.25560        1.40079
H          5.04888       -4.79968        0.98589
H          4.82745       -3.55667       -1.79009
H          5.04858       -5.24002       -1.34771
H          6.34444       -4.08162       -1.03882
H          6.30472       -2.60501        0.86797
H          5.06623       -2.74858        2.09592
H          4.92810       -0.55521        1.11791
H          4.47676       -1.54854       -1.62220
H          5.75316        2.12129       -2.32018
H          6.88917        3.90171       -3.60628
H          8.72041        3.35187       -5.13085
H          8.32916       -0.82882       -4.09712
H         10.94294        2.78409       -4.95338
H         12.99997        2.34280       -6.19039
H         13.28021        0.21887       -7.44279
H         11.43417       -1.43771       -7.48337
H          9.32909       -0.99464       -6.28982

units bohr
no_reorient
no_com

}

set {
  basis STO-3G
  scf_type df
  pcm true
  pcm_scf_type total
}

pcm = {
   Units = Angstrom
   Medium {
   SolverType = IEFPCM
   Solvent = Water
   }

   Cavity {
   RadiiSet = UFF
   Type = GePol
   Scaling = False
   Area = 0.3
   Mode = Implicit
   }
}

e, wfn = psi4.energy("B3LYP/aug-cc-pVDZ", return_wfn=True, molecule=molecule)

HOMO = wfn.epsilon_a_subset('AO', 'ALL').np[wfn.nalpha()]
LUMO = wfn.epsilon_a_subset('AO', 'ALL').np[wfn.nalpha() + 1]

print(HOMO, LUMO, e)


--------------------------------------------------------------------------
  Threads set to 4 by Python driver.

Scratch directory: /tmp/
  PCM does not make use of molecular symmetry: further calculations in C1 point group.

*** tstart() called on Bedabratas-MacBook-Air.local
*** at Mon Jul 18 11:06:07 2022

   => Loading Basis Set <=

    Name: AUG-CC-PVDZ
    Role: ORBITAL
    Keyword: BASIS
    atoms 1-10, 12, 15-26 entry C          line   182 file /opt/miniconda3/share/psi4/basis/aug-cc-pvdz.gbs 
    atoms 11              entry N          line   218 file /opt/miniconda3/share/psi4/basis/aug-cc-pvdz.gbs 
    atoms 13-14           entry O          line   254 file /opt/miniconda3/share/psi4/basis/aug-cc-pvdz.gbs 
    atoms 27-55           entry H          line    40 file /opt/miniconda3/share/psi4/basis/aug-cc-pvdz.gbs 


         ---------------------------------------------------------
                                   SCF
               by Justin Turney, Rob Parrish, Andy Simmonett
                          and Daniel G. A. Smith
                              RKS Reference
                        4 Threads,    500 MiB Core
         ---------------------------------------------------------

  ==> Geometry <==

    Molecular point group: c1
    Full point group: C1

    Geometry (in Bohr), charge = 0, multiplicity = 1:

       Center              X                  Y                   Z               Mass       
    ------------   -----------------  -----------------  -----------------  -----------------
         C            0.975440000000    -1.270240000000     2.265070000000    12.000000000000
         C            2.505610000000    -1.352760000000     2.148450000000    12.000000000000
         C            3.081740000000    -0.123610000000     2.870730000000    12.000000000000
         C            2.993370000000    -1.455430000000     0.660800000000    12.000000000000
         C            2.474190000000    -2.720600000000    -0.064560000000    12.000000000000
         C            3.152010000000    -4.017000000000     0.384050000000    12.000000000000
         C            4.685900000000    -3.962900000000     0.371970000000    12.000000000000
         C            5.256770000000    -4.212510000000    -1.030470000000    12.000000000000
         C            5.219010000000    -2.671970000000     1.011420000000    12.000000000000
         C            4.538990000000    -1.383740000000     0.520450000000    12.000000000000
         N            4.928460000000    -1.081960000000    -0.850410000000    14.003074004430
         C            6.055130000000    -0.386300000000    -1.184890000000    12.000000000000
         O            6.763970000000     0.228090000000    -0.399640000000    15.994914619570
         O            6.245340000000    -0.482670000000    -2.554920000000    15.994914619570
         C            6.981830000000     0.550020000000    -3.152820000000    12.000000000000
         C            6.567360000000     1.869280000000    -2.992800000000    12.000000000000
         C            7.201940000000     2.868410000000    -3.711280000000    12.000000000000
         C            8.256000000000     2.541360000000    -4.570100000000    12.000000000000
         C            8.727040000000     1.219110000000    -4.710900000000    12.000000000000
         C            8.035990000000     0.213220000000    -4.009390000000    12.000000000000
         C            9.944820000000     0.936020000000    -5.510610000000    12.000000000000
         C           11.012430000000     1.857780000000    -5.519630000000    12.000000000000
         C           12.197640000000     1.610280000000    -6.215410000000    12.000000000000
         C           12.351210000000     0.422050000000    -6.917730000000    12.000000000000
         C           11.312750000000    -0.506300000000    -6.935820000000    12.000000000000
         C           10.119720000000    -0.249250000000    -6.244990000000    12.000000000000
         H            0.674800000000    -1.224050000000     3.318870000000     1.007825032230
         H            0.476170000000    -2.142030000000     1.837010000000     1.007825032230
         H            0.588910000000    -0.371620000000     1.771830000000     1.007825032230
         H            2.828530000000    -2.243500000000     2.699810000000     1.007825032230
         H            2.899220000000     0.791720000000     2.296850000000     1.007825032230
         H            4.157730000000    -0.219470000000     3.039420000000     1.007825032230
         H            2.625050000000     0.003800000000     3.858610000000     1.007825032230
         H            2.567960000000    -0.589490000000     0.132970000000     1.007825032230
         H            2.625670000000    -2.600680000000    -1.144310000000     1.007825032230
         H            1.391230000000    -2.825570000000     0.052710000000     1.007825032230
         H            2.802580000000    -4.841830000000    -0.249960000000     1.007825032230
         H            2.818030000000    -4.255600000000     1.400790000000     1.007825032230
         H            5.048880000000    -4.799680000000     0.985890000000     1.007825032230
         H            4.827450000000    -3.556670000000    -1.790090000000     1.007825032230
         H            5.048580000000    -5.240020000000    -1.347710000000     1.007825032230
         H            6.344440000000    -4.081620000000    -1.038820000000     1.007825032230
         H            6.304720000000    -2.605010000000     0.867970000000     1.007825032230
         H            5.066230000000    -2.748580000000     2.095920000000     1.007825032230
         H            4.928100000000    -0.555210000000     1.117910000000     1.007825032230
         H            4.476760000000    -1.548540000000    -1.622200000000     1.007825032230
         H            5.753160000000     2.121290000000    -2.320180000000     1.007825032230
         H            6.889170000000     3.901710000000    -3.606280000000     1.007825032230
         H            8.720410000000     3.351870000000    -5.130850000000     1.007825032230
         H            8.329160000000    -0.828820000000    -4.097120000000     1.007825032230
         H           10.942940000000     2.784090000000    -4.953380000000     1.007825032230
         H           12.999970000000     2.342800000000    -6.190390000000     1.007825032230
         H           13.280210000000     0.218870000000    -7.442790000000     1.007825032230
         H           11.434170000000    -1.437710000000    -7.483370000000     1.007825032230
         H            9.329090000000    -0.994640000000    -6.289820000000     1.007825032230

  Running in c1 symmetry.

  Rotational constants: A =      0.02381  B =      0.00269  C =      0.00253 [cm^-1]
  Rotational constants: A =    713.85337  B =     80.71767  C =     75.75148 [MHz]
  Nuclear repulsion = 4188.988095779574905

  Charge       = 0
  Multiplicity = 1
  Electrons    = 190
  Nalpha       = 95
  Nbeta        = 95

  ==> Algorithm <==

  SCF Algorithm Type is DF.
  DIIS enabled.
  MOM disabled.
  Fractional occupation disabled.
  Guess Type is SAD.
  Energy threshold   = 1.00e-06
  Density threshold  = 1.00e-06
  Integral threshold = 1.00e-12

  ==> Primary Basis <==

  Basis Set: AUG-CC-PVDZ
    Blend: AUG-CC-PVDZ
    Number of shells: 379
    Number of basis functions: 859
    Number of Cartesian functions: 911
    Spherical Harmonics?: true
    Max angular momentum: 2

  ==> DFT Potential <==

   => LibXC <=

    Version 5.1.5
    S. Lehtola, C. Steigemann, M. J. Oliveira, and M. A. Marques, SoftwareX 7, 1 (2018) (10.1016/j.softx.2017.11.002)

   => Composite Functional: B3LYP <= 

    B3LYP Hyb-GGA Exchange-Correlation Functional

    P. J. Stephens, F. J. Devlin, C. F. Chabalowski, and M. J. Frisch, J. Phys. Chem. 98, 11623 (1994) (10.1021/j100096a001)

    Deriv               =              1
    GGA                 =           TRUE
    Meta                =          FALSE

    Exchange Hybrid     =           TRUE
    MP2 Hybrid          =          FALSE

   => Exchange Functionals <=

    0.0800   Slater exchange
    0.7200         Becke 88

   => Exact (HF) Exchange <=

    0.2000               HF 

   => Correlation Functionals <=

    0.1900   Vosko, Wilk & Nusair (VWN5_RPA)
    0.8100   Lee, Yang & Parr

   => LibXC Density Thresholds  <==

    XC_HYB_GGA_XC_B3LYP:  1.00E-15 

   => Molecular Quadrature <=

    Radial Scheme          =       TREUTLER
    Pruning Scheme         =           NONE
    Nuclear Scheme         =       TREUTLER

    Blocking Scheme        =         OCTREE
    BS radius alpha        =              1
    Pruning alpha          =              1
    Radial Points          =             75
    Spherical Points       =            302
    Total Points           =        1026858
    Total Blocks           =           7021
    Max Points             =            256
    Max Functions          =            837
    Weights Tolerance      =       1.00E-15

   => Loading Basis Set <=

    Name: (AUG-CC-PVDZ AUX)
    Role: JKFIT
    Keyword: DF_BASIS_SCF
    atoms 1-10, 12, 15-26 entry C          line   154 file /opt/miniconda3/share/psi4/basis/aug-cc-pvdz-jkfit.gbs 
    atoms 11              entry N          line   212 file /opt/miniconda3/share/psi4/basis/aug-cc-pvdz-jkfit.gbs 
    atoms 13-14           entry O          line   270 file /opt/miniconda3/share/psi4/basis/aug-cc-pvdz-jkfit.gbs 
    atoms 27-55           entry H          line    70 file /opt/miniconda3/share/psi4/basis/aug-cc-pvdz-jkfit.gbs 

  **PSI4:PCMSOLVER Interface Active**

-----------------------------------------------------------------------
   PCMSolver: An Open Source API for the Polarizable Continuum Model
                   PCMSolver undefined+4d04180

           Git: Branch {v1211}, Revision {4d04180}

 R. Di Remigio, A. H. Steindal, K. Mozgawa, V. Weijo, H. Cao, and
 L. Frediani, Int. J. Quantum Chem., to be submitted

 Source repository: https://github.com/PCMSolver/pcmsolver
 Documentation: https://pcmsolver.readthedocs.io/
 PCMSolver initialized on: Monday, 18 July 2022 11:06 AM
-----------------------------------------------------------------------

~~~~~~~~~~ PCMSolver ~~~~~~~~~~
Using CODATA 2010 set of constants.
Input parsing done API-side
========== Cavity 
Atomic radii set: 
Cavity type: GePol
Average tesserae area = 0.3 Ang^2
Solvent probe radius = 1.385 Ang
Number of spheres = 55 [initial = 55; added = 0]
Number of finite elements = 1145
Number of irreducible finite elements = 1145
============ Spheres list (in Angstrom)
 Sphere   on   Radius   Alpha       X            Y            Z     
-------- ---- -------- ------- -----------  -----------  -----------
   1      C    1.9255   1.00     0.516181     -0.672182     1.198623
   2      C    1.9255   1.00     1.325912     -0.715850     1.136911
   3      C    1.9255   1.00     1.630787     -0.065412     1.519125
   4      C    1.9255   1.00     1.584023     -0.770180     0.349680
   5      C    1.9255   1.00     1.309285     -1.439680     -0.034164
   6      C    1.9255   1.00     1.667972     -2.125705     0.203231
   7      C    1.9255   1.00     2.479671     -2.097076     0.196838
   8      C    1.9255   1.00     2.781763     -2.229164     -0.545301
   9      C    1.9255   1.00     2.761781     -1.413946     0.535220
  10      C    1.9255   1.00     2.401930     -0.732244     0.275410
  11      N    1.8300   1.00     2.608029     -0.572549     -0.450018
  12      C    1.9255   1.00     3.204237     -0.204421     -0.627017
  13      O    1.7500   1.00     3.579339     0.120700     -0.211480
  14      O    1.7500   1.00     3.304892     -0.255418     -1.352005
  15      C    1.9255   1.00     3.694625     0.291058     -1.668400
  16      C    1.9255   1.00     3.475297     0.989180     -1.583722
  17      C    1.9255   1.00     3.811103     1.517897     -1.963925
  18      C    1.9255   1.00     4.368887     1.344830     -2.418393
  19      C    1.9255   1.00     4.618151     0.645125     -2.492901
  20      C    1.9255   1.00     4.252463     0.112831     -2.121678
  21      C    1.9255   1.00     5.262572     0.495320     -2.916089
  22      C    1.9255   1.00     5.827527     0.983095     -2.920862
  23      C    1.9255   1.00     6.454713     0.852123     -3.289053
  24      C    1.9255   1.00     6.535979     0.223339     -3.660705
  25      C    1.9255   1.00     5.986449     -0.267922     -3.670278
  26      C    1.9255   1.00     5.355125     -0.131897     -3.304706
  27      H    1.4430   1.00     0.357089     -0.647739     1.756270
  28      H    1.4430   1.00     0.251978     -1.133513     0.972104
  29      H    1.4430   1.00     0.311638     -0.196653     0.937612
  30      H    1.4430   1.00     1.496794     -1.187209     1.428678
  31      H    1.4430   1.00     1.534201     0.418960     1.215441
  32      H    1.4430   1.00     2.200176     -0.116139     1.608392
  33      H    1.4430   1.00     1.389117     0.002011     2.041888
  34      H    1.4430   1.00     1.358906     -0.311945     0.070365
  35      H    1.4430   1.00     1.389445     -1.376221     -0.605543
  36      H    1.4430   1.00     0.736207     -1.495227     0.027893
  37      H    1.4430   1.00     1.483061     -2.562186     -0.132273
  38      H    1.4430   1.00     1.491237     -2.251967     0.741266
  39      H    1.4430   1.00     2.671752     -2.539881     0.521711
  40      H    1.4430   1.00     2.554577     -1.882109     -0.947275
  41      H    1.4430   1.00     2.671593     -2.772899     -0.713177
  42      H    1.4430   1.00     3.357333     -2.159900     -0.549720
  43      H    1.4430   1.00     3.336314     -1.378512     0.459310
  44      H    1.4430   1.00     2.680933     -1.454486     1.109113
  45      H    1.4430   1.00     2.607838     -0.293804     0.591572
  46      H    1.4430   1.00     2.368999     -0.819452     -0.858431
  47      H    1.4430   1.00     3.044441     1.122538     -1.227786
  48      H    1.4430   1.00     3.645592     2.064696     -1.908361
  49      H    1.4430   1.00     4.614642     1.773733     -2.715129
  50      H    1.4430   1.00     4.407602     -0.438593     -2.168103
  51      H    1.4430   1.00     5.790754     1.473277     -2.621216
  52      H    1.4430   1.00     6.879288     1.239756     -3.275813
  53      H    1.4430   1.00     7.027584     0.115821     -3.938555
  54      H    1.4430   1.00     6.050702     -0.760803     -3.960029
  55      H    1.4430   1.00     4.936742     -0.526341     -3.328429
========== Static solver 
Solver Type: IEFPCM, isotropic
PCM matrix hermitivitized
============ Medium 
Medium initialized from solvent built-in data.
Solvent name:          Water
Static  permittivity = 78.39
Optical permittivity = 1.78
Solvent radius =       1.39 Ang
.... Inside 
Green's function type: vacuum
.... Outside 
Green's function type: uniform dielectric
Permittivity = 78.39

  ==> Integral Setup <==

  ==> DiskDFJK: Density-Fitted J/K Matrices <==

    J tasked:                  Yes
    K tasked:                  Yes
    wK tasked:                  No
    OpenMP threads:              4
    Integrals threads:           4
    Memory [MiB]:              337
    Algorithm:                Disk
    Integral Cache:           NONE
    Schwarz Cutoff:          1E-12
    Fitting Condition:       1E-10

   => Auxiliary Basis Set <=

  Basis Set: (AUG-CC-PVDZ AUX)
    Blend: AUG-CC-PVDZ-JKFIT
    Number of shells: 1076
    Number of basis functions: 3164
    Number of Cartesian functions: 3641
    Spherical Harmonics?: true
    Max angular momentum: 3

  Cached 0.2% of DFT collocation blocks in 0.040 [GiB].

  Minimum eigenvalue in the overlap matrix is 8.5502017121E-11.
  Reciprocal condition number of the overlap matrix is 1.6423094399E-12.
    Using canonical orthogonalization.
  Overall, 53 of 859 possible MOs eliminated.


  ==> Pre-Iterations <==

  SCF Guess: Superposition of Atomic Densities via on-the-fly atomic UHF (no occupation information).

   -------------------------
    Irrep   Nso     Nmo    
   -------------------------
     A        859     806 
   -------------------------
    Total     859     806
   -------------------------

  ==> Iterations <==

                           Total Energy        Delta E     RMS |[F,P]|

   @DF-RKS iter SAD: -1128.39466791672862   -1.12839e+03   0.00000e+00 
   @DF-RKS iter   1: -1018.32710470194365    1.10068e+02   1.02284e-02 ADIIS/DIIS
   @DF-RKS iter   2:  -639.36012553200294    3.78967e+02   2.85836e-02 ADIIS/DIIS
   @DF-RKS iter   3: -1037.07831225961786   -3.97718e+02   2.53574e-03 ADIIS/DIIS
   @DF-RKS iter   4: -1033.45882316164352    3.61949e+00   4.33293e-03 ADIIS/DIIS
   @DF-RKS iter   5: -1038.31199259613709   -4.85317e+00   8.26933e-04 ADIIS/DIIS
   @DF-RKS iter   6: -1038.43364260708427   -1.21650e-01   3.52492e-04 ADIIS/DIIS
   @DF-RKS iter   7: -1038.45775845191019   -2.41158e-02   1.46130e-04 ADIIS/DIIS
   @DF-RKS iter   8: -1038.46117831239280   -3.41986e-03   4.60988e-05 DIIS
   @DF-RKS iter   9: -1038.46154164028076   -3.63328e-04   2.14179e-05 DIIS
   @DF-RKS iter  10: -1038.46162353717637   -8.18969e-05   1.33799e-05 DIIS
   @DF-RKS iter  11: -1038.46166141627214   -3.78791e-05   5.42235e-06 DIIS
   @DF-RKS iter  12: -1038.46166927185232   -7.85558e-06   1.07862e-06 DIIS
   @DF-RKS iter  13: -1038.46166955931108   -2.87459e-07   5.44202e-07 DIIS
  Energy and wave function converged.


  ==> Post-Iterations <==

   Electrons on quadrature grid:
      Ntotal   =  189.9998735043 ; deviation = -1.265e-04 

    Orbital Energies [Eh]
    ---------------------

    Doubly Occupied:                                                      

       1A    -19.174652     2A    -19.087477     3A    -14.360669  
       4A    -10.592260     5A    -10.378649     6A    -10.314214  
       7A    -10.277431     8A    -10.271857     9A    -10.254221  
      10A    -10.233720    11A    -10.233476    12A    -10.225742  
      13A    -10.218359    14A    -10.191408    15A    -10.158887  
      16A    -10.154224    17A    -10.134698    18A    -10.121263  
      19A    -10.117352    20A    -10.114360    21A    -10.101932  
      22A    -10.095183    23A    -10.095059    24A    -10.081571  
      25A    -10.049372    26A    -10.032918    27A     -1.799260  
      28A     -1.702733    29A     -1.566730    30A     -1.518255  
      31A     -1.449303    32A     -1.423652    33A     -1.410654  
      34A     -1.320646    35A     -1.271894    36A     -1.231474  
      37A     -1.205985    38A     -1.192611    39A     -1.174555  
      40A     -1.135661    41A     -1.101602    42A     -1.097330  
      43A     -1.061774    44A     -0.994616    45A     -0.986299  
      46A     -0.920865    47A     -0.917953    48A     -0.893404  
      49A     -0.881206    50A     -0.867877    51A     -0.847907  
      52A     -0.839198    53A     -0.805641    54A     -0.760859  
      55A     -0.748911    56A     -0.742510    57A     -0.722749  
      58A     -0.709796    59A     -0.705458    60A     -0.697209  
      61A     -0.674538    62A     -0.631807    63A     -0.599310  
      64A     -0.568850    65A     -0.534691    66A     -0.525468  
      67A     -0.501149    68A     -0.479814    69A     -0.471651  
      70A     -0.445238    71A     -0.438941    72A     -0.430633  
      73A     -0.426647    74A     -0.413504    75A     -0.405406  
      76A     -0.378113    77A     -0.364165    78A     -0.347929  
      79A     -0.342557    80A     -0.340446    81A     -0.332880  
      82A     -0.326798    83A     -0.321829    84A     -0.302282  
      85A     -0.290818    86A     -0.264215    87A     -0.241520  
      88A     -0.238541    89A     -0.204870    90A     -0.164532  
      91A     -0.153314    92A     -0.146273    93A     -0.138661  
      94A     -0.118148    95A     -0.078735  

    Virtual:                                                              

      96A     -0.011367    97A     -0.004651    98A     -0.001818  
      99A      0.000682   100A      0.015291   101A      0.016829  
     102A      0.018897   103A      0.026869   104A      0.029604  
     105A      0.034022   106A      0.039572   107A      0.044445  
     108A      0.048722   109A      0.050376   110A      0.058163  
     111A      0.059475   112A      0.062607   113A      0.064156  
     114A      0.065520   115A      0.069561   116A      0.070882  
     117A      0.071862   118A      0.076484   119A      0.078383  
     120A      0.081821   121A      0.087170   122A      0.088047  
     123A      0.090013   124A      0.091967   125A      0.093996  
     126A      0.096375   127A      0.099370   128A      0.100880  
     129A      0.103907   130A      0.105737   131A      0.110185  
     132A      0.111937   133A      0.114056   134A      0.116262  
     135A      0.119523   136A      0.122098   137A      0.125557  
     138A      0.129463   139A      0.134033   140A      0.137893  
     141A      0.140904   142A      0.142916   143A      0.145627  
     144A      0.149552   145A      0.150729   146A      0.154597  
     147A      0.156924   148A      0.160232   149A      0.160917  
     150A      0.163967   151A      0.167351   152A      0.171289  
     153A      0.172407   154A      0.179144   155A      0.180920  
     156A      0.183757   157A      0.187547   158A      0.189787  
     159A      0.191743   160A      0.195610   161A      0.199935  
     162A      0.203855   163A      0.204370   164A      0.208187  
     165A      0.210937   166A      0.213736   167A      0.214652  
     168A      0.217498   169A      0.218281   170A      0.220894  
     171A      0.227800   172A      0.229558   173A      0.230954  
     174A      0.231643   175A      0.232554   176A      0.235081  
     177A      0.238328   178A      0.240219   179A      0.242131  
     180A      0.242809   181A      0.245842   182A      0.247936  
     183A      0.253346   184A      0.254329   185A      0.257425  
     186A      0.258809   187A      0.263472   188A      0.266130  
     189A      0.267692   190A      0.270030   191A      0.273988  
     192A      0.276263   193A      0.279022   194A      0.286377  
     195A      0.287748   196A      0.293187   197A      0.294415  
     198A      0.297000   199A      0.300292   200A      0.305959  
     201A      0.312285   202A      0.315038   203A      0.318039  
     204A      0.319933   205A      0.323074   206A      0.326482  
     207A      0.329631   208A      0.335002   209A      0.343055  
     210A      0.351861   211A      0.353720   212A      0.360063  
     213A      0.363047   214A      0.367044   215A      0.370382  
     216A      0.376634   217A      0.381691   218A      0.383044  
     219A      0.386860   220A      0.391117   221A      0.400002  
     222A      0.402407   223A      0.405272   224A      0.406584  
     225A      0.412035   226A      0.420553   227A      0.425597  
     228A      0.427123   229A      0.431472   230A      0.433483  
     231A      0.440398   232A      0.443648   233A      0.449820  
     234A      0.456547   235A      0.457589   236A      0.460679  
     237A      0.468430   238A      0.472154   239A      0.474875  
     240A      0.479561   241A      0.480931   242A      0.487628  
     243A      0.488787   244A      0.496076   245A      0.496364  
     246A      0.497176   247A      0.499382   248A      0.504019  
     249A      0.509328   250A      0.511646   251A      0.515847  
     252A      0.522107   253A      0.522780   254A      0.526474  
     255A      0.531121   256A      0.533675   257A      0.536681  
     258A      0.541610   259A      0.543056   260A      0.549136  
     261A      0.552625   262A      0.555683   263A      0.558732  
     264A      0.561416   265A      0.567970   266A      0.569283  
     267A      0.573007   268A      0.574123   269A      0.578830  
     270A      0.586086   271A      0.591929   272A      0.592873  
     273A      0.595097   274A      0.601551   275A      0.604261  
     276A      0.609849   277A      0.615003   278A      0.618664  
     279A      0.622865   280A      0.628095   281A      0.630586  
     282A      0.633306   283A      0.638939   284A      0.646135  
     285A      0.652220   286A      0.657302   287A      0.661382  
     288A      0.664544   289A      0.670871   290A      0.676285  
     291A      0.681983   292A      0.686086   293A      0.689582  
     294A      0.693527   295A      0.695032   296A      0.701846  
     297A      0.708443   298A      0.710940   299A      0.716513  
     300A      0.719455   301A      0.723126   302A      0.725571  
     303A      0.730373   304A      0.738912   305A      0.739938  
     306A      0.743415   307A      0.750385   308A      0.752613  
     309A      0.754110   310A      0.758167   311A      0.759186  
     312A      0.766301   313A      0.768160   314A      0.770856  
     315A      0.774345   316A      0.779228   317A      0.784860  
     318A      0.788616   319A      0.790933   320A      0.796040  
     321A      0.801182   322A      0.806254   323A      0.814223  
     324A      0.821031   325A      0.825080   326A      0.826237  
     327A      0.832214   328A      0.834152   329A      0.841499  
     330A      0.843663   331A      0.848341   332A      0.850650  
     333A      0.855192   334A      0.856597   335A      0.864333  
     336A      0.868812   337A      0.870763   338A      0.872202  
     339A      0.874151   340A      0.883059   341A      0.886311  
     342A      0.889448   343A      0.893103   344A      0.898431  
     345A      0.904712   346A      0.907406   347A      0.909778  
     348A      0.912812   349A      0.914380   350A      0.920872  
     351A      0.926847   352A      0.929480   353A      0.935953  
     354A      0.937282   355A      0.939218   356A      0.946358  
     357A      0.948167   358A      0.951981   359A      0.957695  
     360A      0.960193   361A      0.966246   362A      0.967195  
     363A      0.971598   364A      0.976290   365A      0.981135  
     366A      0.986839   367A      0.991387   368A      0.995177  
     369A      1.001406   370A      1.004576   371A      1.007359  
     372A      1.010636   373A      1.012960   374A      1.018341  
     375A      1.022252   376A      1.027587   377A      1.033986  
     378A      1.036898   379A      1.040251   380A      1.045717  
     381A      1.048457   382A      1.055823   383A      1.060418  
     384A      1.063466   385A      1.068232   386A      1.070454  
     387A      1.072462   388A      1.080575   389A      1.086214  
     390A      1.086812   391A      1.092525   392A      1.099229  
     393A      1.105393   394A      1.107510   395A      1.110045  
     396A      1.114071   397A      1.121994   398A      1.126956  
     399A      1.132553   400A      1.135414   401A      1.142247  
     402A      1.150380   403A      1.154367   404A      1.156365  
     405A      1.165502   406A      1.167123   407A      1.168870  
     408A      1.176803   409A      1.181458   410A      1.188971  
     411A      1.191132   412A      1.195952   413A      1.198933  
     414A      1.203463   415A      1.206975   416A      1.217284  
     417A      1.219776   418A      1.227342   419A      1.231446  
     420A      1.234973   421A      1.242347   422A      1.245600  
     423A      1.253828   424A      1.257638   425A      1.263647  
     426A      1.269278   427A      1.275517   428A      1.277396  
     429A      1.285396   430A      1.286859   431A      1.293345  
     432A      1.293737   433A      1.299238   434A      1.309079  
     435A      1.314419   436A      1.321270   437A      1.326523  
     438A      1.334406   439A      1.339526   440A      1.342532  
     441A      1.343732   442A      1.350077   443A      1.352464  
     444A      1.363134   445A      1.367263   446A      1.373688  
     447A      1.376988   448A      1.383288   449A      1.388637  
     450A      1.399479   451A      1.407220   452A      1.409417  
     453A      1.414501   454A      1.418809   455A      1.425238  
     456A      1.428725   457A      1.435277   458A      1.436674  
     459A      1.446286   460A      1.449183   461A      1.454046  
     462A      1.464424   463A      1.466913   464A      1.475212  
     465A      1.480619   466A      1.483399   467A      1.488801  
     468A      1.491054   469A      1.505253   470A      1.512256  
     471A      1.514592   472A      1.528178   473A      1.530770  
     474A      1.536879   475A      1.545172   476A      1.548639  
     477A      1.550498   478A      1.561897   479A      1.566537  
     480A      1.570471   481A      1.574794   482A      1.579753  
     483A      1.581717   484A      1.592097   485A      1.604368  
     486A      1.606162   487A      1.612867   488A      1.618087  
     489A      1.622798   490A      1.625615   491A      1.628821  
     492A      1.633490   493A      1.641722   494A      1.649138  
     495A      1.665599   496A      1.673384   497A      1.677194  
     498A      1.685804   499A      1.698977   500A      1.706673  
     501A      1.711712   502A      1.718992   503A      1.721590  
     504A      1.729483   505A      1.738864   506A      1.742892  
     507A      1.747582   508A      1.751585   509A      1.763529  
     510A      1.768708   511A      1.772520   512A      1.778681  
     513A      1.783459   514A      1.787236   515A      1.796227  
     516A      1.805355   517A      1.810169   518A      1.828633  
     519A      1.834081   520A      1.849028   521A      1.856661  
     522A      1.873293   523A      1.874802   524A      1.882322  
     525A      1.893365   526A      1.899184   527A      1.913010  
     528A      1.928743   529A      1.936423   530A      1.940314  
     531A      1.952371   532A      1.962008   533A      1.963551  
     534A      1.973586   535A      1.987348   536A      1.999846  
     537A      2.009632   538A      2.018272   539A      2.033946  
     540A      2.036031   541A      2.046415   542A      2.048553  
     543A      2.063536   544A      2.068358   545A      2.076174  
     546A      2.090868   547A      2.096518   548A      2.106757  
     549A      2.130072   550A      2.133723   551A      2.138690  
     552A      2.157021   553A      2.160242   554A      2.173818  
     555A      2.187760   556A      2.198392   557A      2.204009  
     558A      2.219345   559A      2.232504   560A      2.242078  
     561A      2.256550   562A      2.261549   563A      2.268412  
     564A      2.276627   565A      2.281329   566A      2.299488  
     567A      2.302993   568A      2.319034   569A      2.326829  
     570A      2.335357   571A      2.350018   572A      2.352941  
     573A      2.372466   574A      2.390348   575A      2.399926  
     576A      2.408242   577A      2.414474   578A      2.433780  
     579A      2.440384   580A      2.449609   581A      2.460853  
     582A      2.472347   583A      2.488641   584A      2.504372  
     585A      2.520964   586A      2.539365   587A      2.550686  
     588A      2.560557   589A      2.565502   590A      2.579805  
     591A      2.591267   592A      2.607915   593A      2.614350  
     594A      2.627676   595A      2.646056   596A      2.647140  
     597A      2.673171   598A      2.683806   599A      2.694690  
     600A      2.712503   601A      2.720385   602A      2.730882  
     603A      2.747736   604A      2.750729   605A      2.769324  
     606A      2.775286   607A      2.785248   608A      2.804417  
     609A      2.816431   610A      2.822957   611A      2.830968  
     612A      2.841427   613A      2.850847   614A      2.870154  
     615A      2.879016   616A      2.893132   617A      2.902265  
     618A      2.909808   619A      2.929373   620A      2.950889  
     621A      2.958464   622A      2.961485   623A      2.977672  
     624A      2.986238   625A      2.998829   626A      3.017967  
     627A      3.020805   628A      3.033056   629A      3.048079  
     630A      3.057156   631A      3.064549   632A      3.077475  
     633A      3.089294   634A      3.113684   635A      3.116917  
     636A      3.128673   637A      3.139086   638A      3.153480  
     639A      3.167098   640A      3.172598   641A      3.192737  
     642A      3.199180   643A      3.208255   644A      3.221942  
     645A      3.230619   646A      3.233506   647A      3.263229  
     648A      3.273000   649A      3.281381   650A      3.297580  
     651A      3.302189   652A      3.317080   653A      3.330218  
     654A      3.353631   655A      3.356435   656A      3.364777  
     657A      3.395500   658A      3.409083   659A      3.428028  
     660A      3.446834   661A      3.458704   662A      3.473276  
     663A      3.479051   664A      3.484393   665A      3.521297  
     666A      3.536367   667A      3.556759   668A      3.567935  
     669A      3.571440   670A      3.583895   671A      3.593490  
     672A      3.609082   673A      3.641007   674A      3.657239  
     675A      3.661699   676A      3.698944   677A      3.704717  
     678A      3.731430   679A      3.737083   680A      3.746148  
     681A      3.774158   682A      3.790688   683A      3.810219  
     684A      3.820474   685A      3.841459   686A      3.846523  
     687A      3.874286   688A      3.884555   689A      3.899632  
     690A      3.911156   691A      3.940509   692A      3.943623  
     693A      3.964206   694A      3.965945   695A      4.004446  
     696A      4.011912   697A      4.038697   698A      4.041009  
     699A      4.066769   700A      4.102731   701A      4.112274  
     702A      4.152354   703A      4.170591   704A      4.190522  
     705A      4.204846   706A      4.236253   707A      4.244719  
     708A      4.285924   709A      4.301120   710A      4.320249  
     711A      4.351844   712A      4.387035   713A      4.427382  
     714A      4.430745   715A      4.468661   716A      4.487179  
     717A      4.523072   718A      4.566186   719A      4.606794  
     720A      4.623452   721A      4.645203   722A      4.648322  
     723A      4.665435   724A      4.690295   725A      4.713067  
     726A      4.728209   727A      4.784529   728A      4.809411  
     729A      4.825218   730A      4.842249   731A      4.873804  
     732A      4.927625   733A      4.946291   734A      4.985888  
     735A      5.001539   736A      5.011947   737A      5.051405  
     738A      5.107909   739A      5.150271   740A      5.168077  
     741A      5.177843   742A      5.219117   743A      5.260782  
     744A      5.291322   745A      5.367052   746A      5.385383  
     747A      5.443633   748A      5.459629   749A      5.539975  
     750A      5.597999   751A      5.634230   752A      5.640558  
     753A      5.727351   754A      5.785230   755A      5.859642  
     756A      5.902862   757A      5.967476   758A      5.991680  
     759A      6.078386   760A      6.093080   761A      6.129148  
     762A      6.190059   763A      6.266133   764A      6.304034  
     765A      6.334744   766A      6.384678   767A      6.450732  
     768A      6.516591   769A      6.547894   770A      6.574186  
     771A      6.612649   772A      6.658517   773A      6.728088  
     774A      6.790104   775A      6.829570   776A      6.944025  
     777A      7.257386   778A      7.510513   779A      7.645978  
     780A      8.007692   781A      8.998211   782A     10.751382  
     783A     11.555563   784A     12.380124   785A     13.900629  
     786A     14.454261   787A     15.053291   788A     16.410736  
     789A     18.134338   790A     18.917397   791A     19.321753  
     792A     19.744729   793A     20.219897   794A     20.676738  
     795A     21.239355   796A     21.441561   797A     22.243215  
     798A     22.476660   799A     23.021025   800A     23.551114  
     801A     23.777886   802A     24.263885   803A     24.459076  
     804A     24.636749   805A     25.608392   806A     26.811627  

    Final Occupation by Irrep:
              A 
    DOCC [    95 ]

  @DF-RKS Final Energy: -1038.46166955931108

   => Energetics <=

    Nuclear Repulsion Energy =           4188.9880957795749055
    One-Electron Energy =               -9669.9409377644769847
    Two-Electron Energy =                4595.9556821266114639
    DFT Exchange-Correlation Energy =    -153.4510491381277575
    Empirical Dispersion Energy =           0.0000000000000000
    VV10 Nonlocal Energy =                  0.0000000000000000
    PCM Polarization Energy =              -0.0134605628929636
    Total Energy =                      -1038.4616695593113036

Computation Completed


Properties will be evaluated at   0.000000,   0.000000,   0.000000 [a0]

Properties computed using the SCF density matrix


 Multipole Moments:

 ------------------------------------------------------------------------------------
     Multipole            Electronic (a.u.)      Nuclear  (a.u.)        Total (a.u.)
 ------------------------------------------------------------------------------------

 L = 1.  Multiply by 2.5417464519 to convert [e a0] to [Debye]
 Dipole X            :      -1216.9035718         1216.6343600           -0.2692118
 Dipole Y            :        103.8702697         -105.1550300           -1.2847603
 Dipole Z            :        374.7719040         -374.0508200            0.7210840
 Magnitude           :                                                    1.4976802

 ------------------------------------------------------------------------------------

*** tstop() called on Bedabratas-MacBook-Air.local at Mon Jul 18 12:23:46 2022
Module time:
	user time   =   11432.90 seconds =     190.55 minutes
	system time =     240.16 seconds =       4.00 minutes
	total time  =       4659 seconds =      77.65 minutes
Total time:
	user time   =   11432.90 seconds =     190.55 minutes
	system time =     240.16 seconds =       4.00 minutes
	total time  =       4659 seconds =      77.65 minutes

    Psi4 stopped on: Monday, 18 July 2022 12:23PM
    Psi4 wall time for execution: 1:17:38.65

*** Psi4 exiting successfully. Buy a developer a beer!
