
    -----------------------------------------------------------------------
          Psi4: An Open-Source Ab Initio Electronic Structure Package
                               Psi4 1.6.1 release

                         Git: Rev {HEAD} 5b9f6e3 


    D. G. A. Smith, L. A. Burns, A. C. Simmonett, R. M. Parrish,
    M. C. Schieber, R. Galvelis, P. Kraus, H. Kruse, R. Di Remigio,
    A. Alenaizan, A. M. James, S. Lehtola, J. P. Misiewicz, M. Scheurer,
    R. A. Shaw, J. B. Schriber, Y. Xie, Z. L. Glick, D. A. Sirianni,
    J. S. O'Brien, J. M. Waldrop, A. Kumar, E. G. Hohenstein,
    B. P. Pritchard, B. R. Brooks, H. F. Schaefer III, A. Yu. Sokolov,
    K. Patkowski, A. E. DePrince III, U. Bozkaya, R. A. King,
    F. A. Evangelista, J. M. Turney, T. D. Crawford, C. D. Sherrill,
    J. Chem. Phys. 152(18) 184108 (2020). https://doi.org/10.1063/5.0006002

                            Additional Code Authors
    E. T. Seidl, C. L. Janssen, E. F. Valeev, M. L. Leininger,
    J. F. Gonthier, R. M. Richard, H. R. McAlexander, M. Saitow, X. Wang,
    P. Verma, M. H. Lechner, and A. Jiang

             Previous Authors, Complete List of Code Contributors,
                       and Citations for Specific Modules
    https://github.com/psi4/psi4/blob/master/codemeta.json
    https://github.com/psi4/psi4/graphs/contributors
    http://psicode.org/psi4manual/master/introduction.html#citing-psifour

    -----------------------------------------------------------------------


    Psi4 started on: Sunday, 17 July 2022 05:30PM

    Process ID: 40382
    Host:       Bedabratas-MacBook-Air.local
    PSIDATADIR: /opt/miniconda3/share/psi4
    Memory:     500.0 MiB
    Threads:    1
    
  ==> Input File <==

--------------------------------------------------------------------------
set_num_threads(4)

molecule molecule {

0 1

O          2.29310       -0.43430       -0.14630
C          3.16760       -0.54030       -1.00840
C          3.22360       -1.75220       -1.91090
C          1.84840       -2.42540       -2.01780
C          1.92040       -3.57950       -3.01070
C          2.99070       -4.59520       -2.61230
C          4.34920       -3.95520       -2.31820
C          4.23630       -2.76480       -1.37430
N          4.15120        0.42020       -1.15550
C          5.26080        0.43610       -2.14230
C          6.57450        0.93590       -1.49630
O          7.65500        0.39210       -1.71300
N          6.43690        2.07840       -0.68230
C          7.23060        2.08220        0.53960
C          7.17650        3.38470        1.34690
C          5.89400        4.16930        1.22670
C          5.67570        5.29180        2.03490
C          4.53990        6.08440        1.86890
C          3.60650        5.77480        0.88530
C          3.80320        4.65670        0.08440
C          4.93990        3.84420        0.25840
C          5.08450        2.63060       -0.60560
C          4.13260        1.51040       -0.18150
H          3.50090       -1.41790       -2.92070
H          1.08930       -1.70120       -2.33730
H          1.52780       -2.80110       -1.03640
H          2.14430       -3.18170       -4.00780
H          0.94500       -4.07300       -3.07430
H          3.10370       -5.33600       -3.41110
H          2.65220       -5.13610       -1.71950
H          4.80560       -3.62300       -3.25770
H          5.02140       -4.70450       -1.88470
H          5.22340       -2.31040       -1.23530
H          3.92520       -3.10850       -0.37810
H          4.98040        1.11790       -2.95310
H          5.43150       -0.54740       -2.57980
H          8.27110        1.82740        0.30490
H          6.85180        1.25730        1.15780
H          7.99670        4.03280        1.02000
H          7.35480        3.13970        2.40270
H          6.40270        5.56780        2.79980
H          4.38840        6.95620        2.50050
H          2.72600        6.39620        0.73780
H          3.06880        4.41710       -0.68040
H          4.84000        2.94290       -1.63200
H          3.10510        1.86820       -0.04480
H          4.45090        1.07700        0.77610

units bohr
no_reorient
no_com

}

set {
  basis STO-3G
  scf_type df
  pcm true
  pcm_scf_type total
}

pcm = {
   Units = Angstrom
   Medium {
   SolverType = IEFPCM
   Solvent = Water
   }

   Cavity {
   RadiiSet = UFF
   Type = GePol
   Scaling = False
   Area = 0.3
   Mode = Implicit
   }
}

e, wfn = psi4.energy("B3LYP/aug-cc-pVDZ", return_wfn=True, molecule=molecule)

HOMO = wfn.epsilon_a_subset('AO', 'ALL').np[wfn.nalpha()]
LUMO = wfn.epsilon_a_subset('AO', 'ALL').np[wfn.nalpha() + 1]

print(HOMO, LUMO, e)


--------------------------------------------------------------------------
  Threads set to 4 by Python driver.

Scratch directory: /tmp/
  PCM does not make use of molecular symmetry: further calculations in C1 point group.

*** tstart() called on Bedabratas-MacBook-Air.local
*** at Sun Jul 17 17:30:38 2022

   => Loading Basis Set <=

    Name: AUG-CC-PVDZ
    Role: ORBITAL
    Keyword: BASIS
    atoms 1, 12             entry O          line   254 file /opt/miniconda3/share/psi4/basis/aug-cc-pvdz.gbs 
    atoms 2-8, 10-11, 14-23 entry C          line   182 file /opt/miniconda3/share/psi4/basis/aug-cc-pvdz.gbs 
    atoms 9, 13             entry N          line   218 file /opt/miniconda3/share/psi4/basis/aug-cc-pvdz.gbs 
    atoms 24-47             entry H          line    40 file /opt/miniconda3/share/psi4/basis/aug-cc-pvdz.gbs 


         ---------------------------------------------------------
                                   SCF
               by Justin Turney, Rob Parrish, Andy Simmonett
                          and Daniel G. A. Smith
                              RKS Reference
                        4 Threads,    500 MiB Core
         ---------------------------------------------------------

  ==> Geometry <==

    Molecular point group: c1
    Full point group: C1

    Geometry (in Bohr), charge = 0, multiplicity = 1:

       Center              X                  Y                   Z               Mass       
    ------------   -----------------  -----------------  -----------------  -----------------
         O            2.293100000000    -0.434300000000    -0.146300000000    15.994914619570
         C            3.167600000000    -0.540300000000    -1.008400000000    12.000000000000
         C            3.223600000000    -1.752200000000    -1.910900000000    12.000000000000
         C            1.848400000000    -2.425400000000    -2.017800000000    12.000000000000
         C            1.920400000000    -3.579500000000    -3.010700000000    12.000000000000
         C            2.990700000000    -4.595200000000    -2.612300000000    12.000000000000
         C            4.349200000000    -3.955200000000    -2.318200000000    12.000000000000
         C            4.236300000000    -2.764800000000    -1.374300000000    12.000000000000
         N            4.151200000000     0.420200000000    -1.155500000000    14.003074004430
         C            5.260800000000     0.436100000000    -2.142300000000    12.000000000000
         C            6.574500000000     0.935900000000    -1.496300000000    12.000000000000
         O            7.655000000000     0.392100000000    -1.713000000000    15.994914619570
         N            6.436900000000     2.078400000000    -0.682300000000    14.003074004430
         C            7.230600000000     2.082200000000     0.539600000000    12.000000000000
         C            7.176500000000     3.384700000000     1.346900000000    12.000000000000
         C            5.894000000000     4.169300000000     1.226700000000    12.000000000000
         C            5.675700000000     5.291800000000     2.034900000000    12.000000000000
         C            4.539900000000     6.084400000000     1.868900000000    12.000000000000
         C            3.606500000000     5.774800000000     0.885300000000    12.000000000000
         C            3.803200000000     4.656700000000     0.084400000000    12.000000000000
         C            4.939900000000     3.844200000000     0.258400000000    12.000000000000
         C            5.084500000000     2.630600000000    -0.605600000000    12.000000000000
         C            4.132600000000     1.510400000000    -0.181500000000    12.000000000000
         H            3.500900000000    -1.417900000000    -2.920700000000     1.007825032230
         H            1.089300000000    -1.701200000000    -2.337300000000     1.007825032230
         H            1.527800000000    -2.801100000000    -1.036400000000     1.007825032230
         H            2.144300000000    -3.181700000000    -4.007800000000     1.007825032230
         H            0.945000000000    -4.073000000000    -3.074300000000     1.007825032230
         H            3.103700000000    -5.336000000000    -3.411100000000     1.007825032230
         H            2.652200000000    -5.136100000000    -1.719500000000     1.007825032230
         H            4.805600000000    -3.623000000000    -3.257700000000     1.007825032230
         H            5.021400000000    -4.704500000000    -1.884700000000     1.007825032230
         H            5.223400000000    -2.310400000000    -1.235300000000     1.007825032230
         H            3.925200000000    -3.108500000000    -0.378100000000     1.007825032230
         H            4.980400000000     1.117900000000    -2.953100000000     1.007825032230
         H            5.431500000000    -0.547400000000    -2.579800000000     1.007825032230
         H            8.271100000000     1.827400000000     0.304900000000     1.007825032230
         H            6.851800000000     1.257300000000     1.157800000000     1.007825032230
         H            7.996700000000     4.032800000000     1.020000000000     1.007825032230
         H            7.354800000000     3.139700000000     2.402700000000     1.007825032230
         H            6.402700000000     5.567800000000     2.799800000000     1.007825032230
         H            4.388400000000     6.956200000000     2.500500000000     1.007825032230
         H            2.726000000000     6.396200000000     0.737800000000     1.007825032230
         H            3.068800000000     4.417100000000    -0.680400000000     1.007825032230
         H            4.840000000000     2.942900000000    -1.632000000000     1.007825032230
         H            3.105100000000     1.868200000000    -0.044800000000     1.007825032230
         H            4.450900000000     1.077000000000     0.776100000000     1.007825032230

  Running in c1 symmetry.

  Rotational constants: A =      0.01835  B =      0.00702  C =      0.00522 [cm^-1]
  Rotational constants: A =    550.13598  B =    210.49087  C =    156.37993 [MHz]
  Nuclear repulsion = 3679.565364009643417

  Charge       = 0
  Multiplicity = 1
  Electrons    = 168
  Nalpha       = 84
  Nbeta        = 84

  ==> Algorithm <==

  SCF Algorithm Type is DF.
  DIIS enabled.
  MOM disabled.
  Fractional occupation disabled.
  Guess Type is SAD.
  Energy threshold   = 1.00e-06
  Density threshold  = 1.00e-06
  Integral threshold = 1.00e-12

  ==> Primary Basis <==

  Basis Set: AUG-CC-PVDZ
    Blend: AUG-CC-PVDZ
    Number of shells: 327
    Number of basis functions: 745
    Number of Cartesian functions: 791
    Spherical Harmonics?: true
    Max angular momentum: 2

  ==> DFT Potential <==

   => LibXC <=

    Version 5.1.5
    S. Lehtola, C. Steigemann, M. J. Oliveira, and M. A. Marques, SoftwareX 7, 1 (2018) (10.1016/j.softx.2017.11.002)

   => Composite Functional: B3LYP <= 

    B3LYP Hyb-GGA Exchange-Correlation Functional

    P. J. Stephens, F. J. Devlin, C. F. Chabalowski, and M. J. Frisch, J. Phys. Chem. 98, 11623 (1994) (10.1021/j100096a001)

    Deriv               =              1
    GGA                 =           TRUE
    Meta                =          FALSE

    Exchange Hybrid     =           TRUE
    MP2 Hybrid          =          FALSE

   => Exchange Functionals <=

    0.0800   Slater exchange
    0.7200         Becke 88

   => Exact (HF) Exchange <=

    0.2000               HF 

   => Correlation Functionals <=

    0.1900   Vosko, Wilk & Nusair (VWN5_RPA)
    0.8100   Lee, Yang & Parr

   => LibXC Density Thresholds  <==

    XC_HYB_GGA_XC_B3LYP:  1.00E-15 

   => Molecular Quadrature <=

    Radial Scheme          =       TREUTLER
    Pruning Scheme         =           NONE
    Nuclear Scheme         =       TREUTLER

    Blocking Scheme        =         OCTREE
    BS radius alpha        =              1
    Pruning alpha          =              1
    Radial Points          =             75
    Spherical Points       =            302
    Total Points           =         876255
    Total Blocks           =           6101
    Max Points             =            256
    Max Functions          =            745
    Weights Tolerance      =       1.00E-15

   => Loading Basis Set <=

    Name: (AUG-CC-PVDZ AUX)
    Role: JKFIT
    Keyword: DF_BASIS_SCF
    atoms 1, 12             entry O          line   270 file /opt/miniconda3/share/psi4/basis/aug-cc-pvdz-jkfit.gbs 
    atoms 2-8, 10-11, 14-23 entry C          line   154 file /opt/miniconda3/share/psi4/basis/aug-cc-pvdz-jkfit.gbs 
    atoms 9, 13             entry N          line   212 file /opt/miniconda3/share/psi4/basis/aug-cc-pvdz-jkfit.gbs 
    atoms 24-47             entry H          line    70 file /opt/miniconda3/share/psi4/basis/aug-cc-pvdz-jkfit.gbs 

  **PSI4:PCMSOLVER Interface Active**

-----------------------------------------------------------------------
   PCMSolver: An Open Source API for the Polarizable Continuum Model
                   PCMSolver undefined+4d04180

           Git: Branch {v1211}, Revision {4d04180}

 R. Di Remigio, A. H. Steindal, K. Mozgawa, V. Weijo, H. Cao, and
 L. Frediani, Int. J. Quantum Chem., to be submitted

 Source repository: https://github.com/PCMSolver/pcmsolver
 Documentation: https://pcmsolver.readthedocs.io/
 PCMSolver initialized on: Sunday, 17 July 2022 05:31 PM
-----------------------------------------------------------------------

~~~~~~~~~~ PCMSolver ~~~~~~~~~~
Using CODATA 2010 set of constants.
Input parsing done API-side
========== Cavity 
Atomic radii set: 
Cavity type: GePol
Average tesserae area = 0.3 Ang^2
Solvent probe radius = 1.385 Ang
Number of spheres = 47 [initial = 47; added = 0]
Number of finite elements = 963
Number of irreducible finite elements = 963
============ Spheres list (in Angstrom)
 Sphere   on   Radius   Alpha       X            Y            Z     
-------- ---- -------- ------- -----------  -----------  -----------
   1      O    1.7500   1.00     1.213456     -0.229822     -0.077419
   2      C    1.9255   1.00     1.676222     -0.285914     -0.533622
   3      C    1.9255   1.00     1.705856     -0.927224     -1.011205
   4      C    1.9255   1.00     0.978131     -1.283466     -1.067774
   5      C    1.9255   1.00     1.016232     -1.894190     -1.593194
   6      C    1.9255   1.00     1.582610     -2.431675     -1.382370
   7      C    1.9255   1.00     2.301498     -2.093002     -1.226739
   8      C    1.9255   1.00     2.241753     -1.463069     -0.727248
   9      N    1.8300   1.00     2.196720     0.222360     -0.611464
  10      C    1.9255   1.00     2.783895     0.230774     -1.133656
  11      C    1.9255   1.00     3.479076     0.495257     -0.791808
  12      O    1.7500   1.00     4.050852     0.207490     -0.906481
  13      N    1.8300   1.00     3.406261     1.099842     -0.361058
  14      C    1.9255   1.00     3.826269     1.101853     0.285544
  15      C    1.9255   1.00     3.797640     1.791106     0.712749
  16      C    1.9255   1.00     3.118970     2.206299     0.649142
  17      C    1.9255   1.00     3.003451     2.800300     1.076823
  18      C    1.9255   1.00     2.402412     3.219726     0.988979
  19      C    1.9255   1.00     1.908478     3.055893     0.468481
  20      C    1.9255   1.00     2.012567     2.464220     0.044663
  21      C    1.9255   1.00     2.614083     2.034263     0.136739
  22      C    1.9255   1.00     2.690602     1.392054     -0.320470
  23      C    1.9255   1.00     2.186878     0.799269     -0.096046
  24      H    1.4430   1.00     1.852596     -0.750320     -1.545568
  25      H    1.4430   1.00     0.576433     -0.900236     -1.236846
  26      H    1.4430   1.00     0.808477     -1.482278     -0.548439
  27      H    1.4430   1.00     1.134715     -1.683683     -2.120836
  28      H    1.4430   1.00     0.500072     -2.155339     -1.626849
  29      H    1.4430   1.00     1.642407     -2.823690     -1.805076
  30      H    1.4430   1.00     1.403484     -2.717907     -0.909920
  31      H    1.4430   1.00     2.543014     -1.917209     -1.723901
  32      H    1.4430   1.00     2.657210     -2.489514     -0.997340
  33      H    1.4430   1.00     2.764104     -1.222611     -0.653693
  34      H    1.4430   1.00     2.077126     -1.644947     -0.200082
  35      H    1.4430   1.00     2.635514     0.591567     -1.562713
  36      H    1.4430   1.00     2.874226     -0.289672     -1.365171
  37      H    1.4430   1.00     4.376878     0.967018     0.161346
  38      H    1.4430   1.00     3.625816     0.665335     0.612681
  39      H    1.4430   1.00     4.231671     2.134066     0.539761
  40      H    1.4430   1.00     3.891993     1.661458     1.271454
  41      H    1.4430   1.00     3.388163     2.946353     1.481590
  42      H    1.4430   1.00     2.322241     3.681063     1.323208
  43      H    1.4430   1.00     1.442537     3.384723     0.390427
  44      H    1.4430   1.00     1.623939     2.337429     -0.360052
  45      H    1.4430   1.00     2.561218     1.557316     -0.863617
  46      H    1.4430   1.00     1.643148     0.988609     -0.023707
  47      H    1.4430   1.00     2.355315     0.569924     0.410694
========== Static solver 
Solver Type: IEFPCM, isotropic
PCM matrix hermitivitized
============ Medium 
Medium initialized from solvent built-in data.
Solvent name:          Water
Static  permittivity = 78.39
Optical permittivity = 1.78
Solvent radius =       1.39 Ang
.... Inside 
Green's function type: vacuum
.... Outside 
Green's function type: uniform dielectric
Permittivity = 78.39

  ==> Integral Setup <==

  ==> DiskDFJK: Density-Fitted J/K Matrices <==

    J tasked:                  Yes
    K tasked:                  Yes
    wK tasked:                  No
    OpenMP threads:              4
    Integrals threads:           4
    Memory [MiB]:              337
    Algorithm:                Disk
    Integral Cache:           NONE
    Schwarz Cutoff:          1E-12
    Fitting Condition:       1E-10

   => Auxiliary Basis Set <=

  Basis Set: (AUG-CC-PVDZ AUX)
    Blend: AUG-CC-PVDZ-JKFIT
    Number of shells: 932
    Number of basis functions: 2746
    Number of Cartesian functions: 3163
    Spherical Harmonics?: true
    Max angular momentum: 3

  Cached 0.2% of DFT collocation blocks in 0.026 [GiB].

  Minimum eigenvalue in the overlap matrix is 9.4767880101E-11.
  Reciprocal condition number of the overlap matrix is 1.8830760549E-12.
    Using canonical orthogonalization.
  Overall, 41 of 745 possible MOs eliminated.


  ==> Pre-Iterations <==

  SCF Guess: Superposition of Atomic Densities via on-the-fly atomic UHF (no occupation information).

   -------------------------
    Irrep   Nso     Nmo    
   -------------------------
     A        745     704 
   -------------------------
    Total     745     704
   -------------------------

  ==> Iterations <==

                           Total Energy        Delta E     RMS |[F,P]|

   @DF-RKS iter SAD: -1029.67081371858399   -1.02967e+03   0.00000e+00 
   @DF-RKS iter   1:  -925.49762083922246    1.04173e+02   1.13282e-02 ADIIS/DIIS
   @DF-RKS iter   2:  -547.99494863684981    3.77503e+02   3.48234e-02 ADIIS/DIIS
   @DF-RKS iter   3:  -941.48168161354045   -3.93487e+02   4.29749e-03 ADIIS/DIIS
   @DF-RKS iter   4:  -938.86225842679562    2.61942e+00   5.04234e-03 ADIIS/DIIS
   @DF-RKS iter   5:  -943.83241210408187   -4.97015e+00   1.10403e-03 ADIIS/DIIS
   @DF-RKS iter   6:  -944.00134808147959   -1.68936e-01   6.00035e-04 ADIIS/DIIS
   @DF-RKS iter   7:  -944.04946721783415   -4.81191e-02   2.10836e-04 ADIIS/DIIS
   @DF-RKS iter   8:  -944.05440716048031   -4.93994e-03   9.97312e-05 DIIS
   @DF-RKS iter   9:  -944.05568131935513   -1.27416e-03   3.66349e-05 DIIS
   @DF-RKS iter  10:  -944.05586982488956   -1.88506e-04   1.65288e-05 DIIS
   @DF-RKS iter  11:  -944.05592758591899   -5.77610e-05   6.07389e-06 DIIS
   @DF-RKS iter  12:  -944.05593773329065   -1.01474e-05   1.22894e-06 DIIS
   @DF-RKS iter  13:  -944.05593933359603   -1.60031e-06   6.01509e-07 DIIS
   @DF-RKS iter  14:  -944.05594005549824   -7.21902e-07   3.41620e-07 DIIS
  Energy and wave function converged.


  ==> Post-Iterations <==

   Electrons on quadrature grid:
      Ntotal   =  167.9987963644 ; deviation = -1.204e-03 

    Orbital Energies [Eh]
    ---------------------

    Doubly Occupied:                                                      

       1A    -19.153037     2A    -19.108206     3A    -14.441302  
       4A    -14.418609     5A    -10.530686     6A    -10.523340  
       7A    -10.359234     8A    -10.321290     9A    -10.282978  
      10A    -10.272981    11A    -10.269814    12A    -10.266356  
      13A    -10.243025    14A    -10.241900    15A    -10.212710  
      16A    -10.196009    17A    -10.157772    18A    -10.146610  
      19A    -10.124420    20A    -10.119739    21A    -10.110035  
      22A    -10.079704    23A    -10.050993    24A     -1.899838  
      25A     -1.663358    26A     -1.615790    27A     -1.567454  
      28A     -1.550497    29A     -1.521781    30A     -1.450843  
      31A     -1.421601    32A     -1.402088    33A     -1.322507  
      34A     -1.280225    35A     -1.236883    36A     -1.145191  
      37A     -1.112181    38A     -1.091401    39A     -1.046213  
      40A     -1.041417    41A     -0.998268    42A     -0.954635  
      43A     -0.950674    44A     -0.925182    45A     -0.911941  
      46A     -0.899469    47A     -0.878986    48A     -0.826071  
      49A     -0.817396    50A     -0.807174    51A     -0.748903  
      52A     -0.727593    53A     -0.717180    54A     -0.704120  
      55A     -0.698619    56A     -0.669725    57A     -0.601568  
      58A     -0.578166    59A     -0.563902    60A     -0.546407  
      61A     -0.525488    62A     -0.517218    63A     -0.508011  
      64A     -0.499784    65A     -0.470846    66A     -0.452704  
      67A     -0.433930    68A     -0.414901    69A     -0.403419  
      70A     -0.395426    71A     -0.364124    72A     -0.344890  
      73A     -0.338998    74A     -0.308204    75A     -0.285961  
      76A     -0.262006    77A     -0.256494    78A     -0.202299  
      79A     -0.192183    80A     -0.188066    81A     -0.160852  
      82A     -0.122103    83A     -0.077553    84A     -0.075006  

    Virtual:                                                              

      85A     -0.017195    86A     -0.006529    87A     -0.000602  
      88A      0.002756    89A      0.013253    90A      0.016836  
      91A      0.020105    92A      0.027477    93A      0.031912  
      94A      0.044176    95A      0.044434    96A      0.048838  
      97A      0.049681    98A      0.053450    99A      0.058089  
     100A      0.062762   101A      0.066778   102A      0.070285  
     103A      0.071801   104A      0.072938   105A      0.073847  
     106A      0.076355   107A      0.076664   108A      0.083981  
     109A      0.086901   110A      0.090127   111A      0.092604  
     112A      0.095756   113A      0.098411   114A      0.104138  
     115A      0.105949   116A      0.110309   117A      0.113511  
     118A      0.115579   119A      0.117757   120A      0.122773  
     121A      0.124786   122A      0.129233   123A      0.132013  
     124A      0.132646   125A      0.137569   126A      0.145158  
     127A      0.148565   128A      0.150306   129A      0.151709  
     130A      0.153234   131A      0.157506   132A      0.161474  
     133A      0.164225   134A      0.169402   135A      0.170101  
     136A      0.176168   137A      0.176405   138A      0.179718  
     139A      0.185515   140A      0.189422   141A      0.193862  
     142A      0.195424   143A      0.196474   144A      0.200651  
     145A      0.202295   146A      0.206178   147A      0.208072  
     148A      0.212079   149A      0.216496   150A      0.220022  
     151A      0.221611   152A      0.222504   153A      0.226636  
     154A      0.227162   155A      0.230839   156A      0.231986  
     157A      0.236421   158A      0.241037   159A      0.246344  
     160A      0.247957   161A      0.249826   162A      0.252769  
     163A      0.253455   164A      0.255470   165A      0.259209  
     166A      0.261058   167A      0.265709   168A      0.268914  
     169A      0.278360   170A      0.279521   171A      0.282560  
     172A      0.283396   173A      0.289695   174A      0.290731  
     175A      0.296850   176A      0.300950   177A      0.304689  
     178A      0.313184   179A      0.316338   180A      0.320129  
     181A      0.325856   182A      0.326724   183A      0.335572  
     184A      0.341412   185A      0.347681   186A      0.350495  
     187A      0.363360   188A      0.365672   189A      0.370893  
     190A      0.377975   191A      0.382999   192A      0.386593  
     193A      0.389568   194A      0.398627   195A      0.400812  
     196A      0.406637   197A      0.410583   198A      0.415210  
     199A      0.421182   200A      0.422538   201A      0.428082  
     202A      0.430045   203A      0.436227   204A      0.438338  
     205A      0.447566   206A      0.454927   207A      0.457969  
     208A      0.461853   209A      0.467675   210A      0.472246  
     211A      0.478342   212A      0.480300   213A      0.486146  
     214A      0.490614   215A      0.492728   216A      0.494133  
     217A      0.496377   218A      0.499414   219A      0.503607  
     220A      0.506852   221A      0.514060   222A      0.514763  
     223A      0.519307   224A      0.526147   225A      0.529565  
     226A      0.533537   227A      0.537725   228A      0.539073  
     229A      0.550133   230A      0.554820   231A      0.559043  
     232A      0.562577   233A      0.565056   234A      0.571615  
     235A      0.576840   236A      0.580183   237A      0.584001  
     238A      0.588599   239A      0.590325   240A      0.601601  
     241A      0.606113   242A      0.612361   243A      0.616764  
     244A      0.618174   245A      0.625663   246A      0.628143  
     247A      0.634225   248A      0.637994   249A      0.645229  
     250A      0.651930   251A      0.658426   252A      0.664982  
     253A      0.665444   254A      0.675712   255A      0.679130  
     256A      0.683167   257A      0.688499   258A      0.696396  
     259A      0.697061   260A      0.706292   261A      0.709032  
     262A      0.715497   263A      0.720424   264A      0.722889  
     265A      0.726067   266A      0.733205   267A      0.736180  
     268A      0.736688   269A      0.750547   270A      0.750889  
     271A      0.761633   272A      0.762292   273A      0.771708  
     274A      0.773646   275A      0.777313   276A      0.784170  
     277A      0.785872   278A      0.794105   279A      0.796886  
     280A      0.800761   281A      0.805705   282A      0.811157  
     283A      0.816566   284A      0.821489   285A      0.827512  
     286A      0.831574   287A      0.836803   288A      0.840596  
     289A      0.843740   290A      0.850873   291A      0.856514  
     292A      0.858215   293A      0.863433   294A      0.869134  
     295A      0.872298   296A      0.879765   297A      0.883063  
     298A      0.887128   299A      0.889846   300A      0.895476  
     301A      0.903225   302A      0.904292   303A      0.905475  
     304A      0.911449   305A      0.916207   306A      0.918028  
     307A      0.925646   308A      0.928628   309A      0.933139  
     310A      0.936008   311A      0.940871   312A      0.949136  
     313A      0.950809   314A      0.954875   315A      0.956871  
     316A      0.964624   317A      0.967933   318A      0.970483  
     319A      0.976594   320A      0.980870   321A      0.987487  
     322A      0.990830   323A      0.998105   324A      1.000768  
     325A      1.002013   326A      1.005464   327A      1.013958  
     328A      1.016900   329A      1.022928   330A      1.033417  
     331A      1.039003   332A      1.041945   333A      1.049297  
     334A      1.054111   335A      1.056494   336A      1.060910  
     337A      1.065150   338A      1.066171   339A      1.068145  
     340A      1.077744   341A      1.084626   342A      1.095865  
     343A      1.100545   344A      1.106155   345A      1.112957  
     346A      1.115382   347A      1.118771   348A      1.125659  
     349A      1.131559   350A      1.133190   351A      1.142990  
     352A      1.147897   353A      1.155343   354A      1.163082  
     355A      1.170422   356A      1.179510   357A      1.180910  
     358A      1.188400   359A      1.197882   360A      1.200869  
     361A      1.203878   362A      1.213115   363A      1.219494  
     364A      1.226627   365A      1.231294   366A      1.241082  
     367A      1.243979   368A      1.250370   369A      1.252457  
     370A      1.258454   371A      1.264458   372A      1.274850  
     373A      1.283523   374A      1.291540   375A      1.303246  
     376A      1.304678   377A      1.309447   378A      1.316455  
     379A      1.323195   380A      1.333532   381A      1.337790  
     382A      1.344628   383A      1.347235   384A      1.353715  
     385A      1.355956   386A      1.369351   387A      1.372371  
     388A      1.385309   389A      1.387138   390A      1.392633  
     391A      1.396398   392A      1.399028   393A      1.411371  
     394A      1.417352   395A      1.422310   396A      1.424638  
     397A      1.432985   398A      1.440757   399A      1.446961  
     400A      1.452745   401A      1.461824   402A      1.464550  
     403A      1.477019   404A      1.480054   405A      1.487688  
     406A      1.490158   407A      1.499492   408A      1.508075  
     409A      1.516880   410A      1.520071   411A      1.529290  
     412A      1.532779   413A      1.539473   414A      1.548004  
     415A      1.551452   416A      1.561320   417A      1.568566  
     418A      1.575645   419A      1.585915   420A      1.603658  
     421A      1.611748   422A      1.617348   423A      1.623596  
     424A      1.629085   425A      1.639016   426A      1.644282  
     427A      1.653285   428A      1.663153   429A      1.667168  
     430A      1.676481   431A      1.679538   432A      1.683675  
     433A      1.698822   434A      1.706037   435A      1.713355  
     436A      1.716645   437A      1.722602   438A      1.732770  
     439A      1.740428   440A      1.751405   441A      1.757258  
     442A      1.765266   443A      1.770514   444A      1.783054  
     445A      1.783513   446A      1.789739   447A      1.810435  
     448A      1.814526   449A      1.822247   450A      1.828815  
     451A      1.841134   452A      1.849969   453A      1.859115  
     454A      1.865478   455A      1.869261   456A      1.886631  
     457A      1.892610   458A      1.897920   459A      1.907437  
     460A      1.921527   461A      1.925707   462A      1.936775  
     463A      1.939577   464A      1.953677   465A      1.968122  
     466A      1.974512   467A      1.989329   468A      1.994210  
     469A      2.000240   470A      2.020285   471A      2.022032  
     472A      2.040775   473A      2.050198   474A      2.056741  
     475A      2.075796   476A      2.096068   477A      2.114717  
     478A      2.122281   479A      2.134025   480A      2.149691  
     481A      2.152770   482A      2.166237   483A      2.178868  
     484A      2.187124   485A      2.201761   486A      2.220093  
     487A      2.228002   488A      2.231405   489A      2.240677  
     490A      2.265919   491A      2.266999   492A      2.282597  
     493A      2.294997   494A      2.302875   495A      2.315613  
     496A      2.326356   497A      2.335112   498A      2.352016  
     499A      2.370911   500A      2.379629   501A      2.382323  
     502A      2.399856   503A      2.423887   504A      2.429167  
     505A      2.451937   506A      2.461357   507A      2.474319  
     508A      2.486779   509A      2.490078   510A      2.509731  
     511A      2.519807   512A      2.558528   513A      2.562114  
     514A      2.569950   515A      2.581262   516A      2.587484  
     517A      2.603677   518A      2.618292   519A      2.634333  
     520A      2.637266   521A      2.649400   522A      2.672600  
     523A      2.683089   524A      2.703082   525A      2.710749  
     526A      2.730763   527A      2.759297   528A      2.763231  
     529A      2.767324   530A      2.789690   531A      2.809971  
     532A      2.816525   533A      2.820583   534A      2.849942  
     535A      2.868284   536A      2.878836   537A      2.899533  
     538A      2.903496   539A      2.914274   540A      2.927512  
     541A      2.936406   542A      2.949910   543A      2.968916  
     544A      2.993427   545A      3.013176   546A      3.020610  
     547A      3.034362   548A      3.046541   549A      3.072229  
     550A      3.082076   551A      3.095743   552A      3.108589  
     553A      3.113809   554A      3.130163   555A      3.161693  
     556A      3.167577   557A      3.180923   558A      3.199004  
     559A      3.199395   560A      3.210984   561A      3.235738  
     562A      3.244643   563A      3.266694   564A      3.268076  
     565A      3.292836   566A      3.301782   567A      3.337017  
     568A      3.342636   569A      3.363738   570A      3.374844  
     571A      3.383982   572A      3.418958   573A      3.424570  
     574A      3.436737   575A      3.458664   576A      3.461027  
     577A      3.483104   578A      3.512471   579A      3.538232  
     580A      3.573228   581A      3.581023   582A      3.605765  
     583A      3.610718   584A      3.629119   585A      3.641732  
     586A      3.664155   587A      3.678241   588A      3.691296  
     589A      3.714350   590A      3.724076   591A      3.742391  
     592A      3.764744   593A      3.780152   594A      3.817327  
     595A      3.823586   596A      3.838709   597A      3.875678  
     598A      3.880535   599A      3.914973   600A      3.933242  
     601A      3.953249   602A      3.965784   603A      3.992102  
     604A      4.012543   605A      4.042041   606A      4.084494  
     607A      4.099093   608A      4.113994   609A      4.122930  
     610A      4.166690   611A      4.188105   612A      4.214985  
     613A      4.245540   614A      4.256736   615A      4.264065  
     616A      4.292685   617A      4.310235   618A      4.331870  
     619A      4.338205   620A      4.383678   621A      4.408460  
     622A      4.434349   623A      4.466670   624A      4.470541  
     625A      4.494611   626A      4.549546   627A      4.591456  
     628A      4.611612   629A      4.617106   630A      4.658904  
     631A      4.679642   632A      4.703008   633A      4.718543  
     634A      4.724556   635A      4.763734   636A      4.789453  
     637A      4.799514   638A      4.867175   639A      4.901926  
     640A      4.920362   641A      4.959954   642A      4.987216  
     643A      4.995059   644A      5.043251   645A      5.080039  
     646A      5.108151   647A      5.132243   648A      5.165382  
     649A      5.218339   650A      5.257921   651A      5.310920  
     652A      5.321162   653A      5.407491   654A      5.440260  
     655A      5.467529   656A      5.561304   657A      5.633169  
     658A      5.761021   659A      5.792539   660A      5.858542  
     661A      5.928812   662A      6.021177   663A      6.055896  
     664A      6.106120   665A      6.221928   666A      6.259812  
     667A      6.286756   668A      6.304357   669A      6.363174  
     670A      6.407232   671A      6.499134   672A      6.625543  
     673A      6.668656   674A      6.741452   675A      6.765253  
     676A      6.831094   677A      6.934269   678A      7.063426  
     679A      7.226869   680A      7.316220   681A      7.369854  
     682A     10.480315   683A     11.271588   684A     12.622237  
     685A     15.271156   686A     16.110207   687A     16.892781  
     688A     17.922210   689A     18.373778   690A     19.066747  
     691A     19.777726   692A     20.751944   693A     21.279522  
     694A     21.786750   695A     22.336895   696A     22.840813  
     697A     23.346189   698A     23.715526   699A     23.919644  
     700A     24.210736   701A     24.404932   702A     24.432569  
     703A     25.038186   704A     26.375149  

    Final Occupation by Irrep:
              A 
    DOCC [    84 ]

  @DF-RKS Final Energy:  -944.05594005549824

   => Energetics <=

    Nuclear Repulsion Energy =           3679.5653640096434174
    One-Electron Energy =               -8527.7794501515454613
    Two-Electron Energy =                4041.6042303963740778
    DFT Exchange-Correlation Energy =    -137.4172794532355795
    Empirical Dispersion Energy =           0.0000000000000000
    VV10 Nonlocal Energy =                  0.0000000000000000
    PCM Polarization Energy =              -0.0288048567347334
    Total Energy =                       -944.0559400554982403

Computation Completed


Properties will be evaluated at   0.000000,   0.000000,   0.000000 [a0]

Properties computed using the SCF density matrix


 Multipole Moments:

 ------------------------------------------------------------------------------------
     Multipole            Electronic (a.u.)      Nuclear  (a.u.)        Total (a.u.)
 ------------------------------------------------------------------------------------

 L = 1.  Multiply by 2.5417464519 to convert [e a0] to [Debye]
 Dipole X            :       -771.9941225          771.4379000           -0.5562225
 Dipole Y            :       -145.7959947          146.9433000            1.1473053
 Dipole Z            :        110.4379786         -111.7916000           -1.3536214
 Magnitude           :                                                    1.8595655

 ------------------------------------------------------------------------------------

*** tstop() called on Bedabratas-MacBook-Air.local at Sun Jul 17 18:13:01 2022
Module time:
	user time   =    8374.80 seconds =     139.58 minutes
	system time =     120.16 seconds =       2.00 minutes
	total time  =       2543 seconds =      42.38 minutes
Total time:
	user time   =    8374.80 seconds =     139.58 minutes
	system time =     120.16 seconds =       2.00 minutes
	total time  =       2543 seconds =      42.38 minutes

    Psi4 stopped on: Sunday, 17 July 2022 06:13PM
    Psi4 wall time for execution: 0:42:23.22

*** Psi4 exiting successfully. Buy a developer a beer!
